32
Lattice="8.0 0.0 0.0 0.0 8.0 0.0 0.0 0.0 8.0" Properties=species:S:1:pos:R:3:force:R:3 virial="104.40859100569885 1.6506920183864897 21.783086550453778 1.6506920183864897 77.54990364168464 -12.974030284888787 21.783086550453778 -12.974030284888787 99.55142903056387" energy=-3478.01030067 config_type=Al_T4000 pbc="T T T"
Al       1.79114400       3.23494400       1.13497600      -3.46514000      11.46918000      -4.30774000 
Al       7.16848800       4.99544000      -6.13528800       5.56763000       0.22476000      -1.77068000 
Al       4.20032000      -0.79166400      -0.48939200       3.03522000       1.45826000      -0.74986000 
Al      -6.81600800       1.13495200       4.35219200      -1.71084000       2.66521000      -1.36649000 
Al      -1.04425600       6.19954400       4.60947200       0.58559000      -0.14176000       0.69880000 
Al       3.63489600       1.02566400      12.57580800     -13.92135000      -3.04901000      -8.29865000 
Al       3.61374400       2.16257600       7.62841600      -2.08537000      -2.04533000      -1.73458000 
Al       2.02328000       1.07247200       6.45313600       0.73250000       1.86464000       1.74718000 
Al       2.65676000       5.38956000      -0.34627200      -1.66953000      -3.70262000      -3.79696000 
Al       4.94975200       2.98077600      -7.05329600       1.83510000       3.84136000       1.44309000 
Al       2.23740000       7.30875200       0.73527200      -0.72851000       2.09883000       2.21943000 
Al      -0.92194400      17.23849600       6.20508000       5.59917000      -2.14306000       4.38311000 
Al      -0.87636800      -5.00893600       4.75360800       0.05919000       2.14615000      -2.47270000 
Al       3.53949600       3.97640800       3.79063200       0.70305000      -0.29621000      -2.23167000 
Al       1.64472800      -3.41030400      11.07788800      -4.61848000       2.74459000      -4.29453000 
Al      -2.44709600       4.69354400       3.04772000      -1.73792000      -0.81227000       5.03546000 
Al       5.22997600       1.12434400      -2.66842400      10.85444000      -4.54762000       4.11374000 
Al       6.28248800      -4.52761600      -0.83410400      -0.59545000       0.80984000      -1.20918000 
Al      10.37227200       1.66435200       1.83766400       4.17388000     -11.68295000       6.30284000 
Al       8.66450400       3.30780800       7.14220800      -0.51679000      -0.31359000       0.23780000 
Al      -3.63822400       7.87787200       2.27228800       0.04351000      -1.45324000      -0.23122000 
Al       1.76128800      -0.96183200       3.62560800       0.66481000      -1.63140000      -0.75357000 
Al       7.89511200      -0.48521600       1.01526400      -0.75584000       1.29623000       0.59934000 
Al      -0.87544800       0.37520800      11.19200000      -0.64233000      -2.13761000       1.94852000 
Al       7.26284800       5.73800000      -0.30538400      -0.93101000      -0.73137000      -3.35383000 
Al       5.39459200       2.01995200      -5.24651200      -0.62017000      -0.75005000       5.21185000 
Al       9.54676000       3.96616800      -2.85003200       0.40626000      -0.04712000       2.37627000 
Al       4.26093600       2.98480800       5.50308800       0.46152000       4.98100000       3.71844000 
Al      -0.51763200       2.03686400       1.65350400       1.66548000       1.97687000      -2.32515000 
Al       0.78799200       7.29532000       6.51116800      -1.63453000      -3.43589000      -0.80010000 
Al       3.92350400       5.25534400       1.57057600      -0.69246000       1.28774000       0.14258000 
Al       4.29468800       6.12638400      13.24112000      -0.06164000       0.05642000      -0.48154000 
108
Lattice="12.48 0.0 0.0 0.0 12.48 0.0 0.0 0.0 12.48" Properties=species:S:1:pos:R:3:force:R:3 virial="153.8072776387044 32.39593315109084 0.045664949387632436 32.39593315109084 176.97770207485374 25.55330011073055 0.045664949387632436 25.55330011073055 172.6459011971701" energy=-11771.1449061 config_type=Al_T4000 pbc="T T T"
Al       1.24857408      -4.32922464      -3.19928544       0.61672000      -0.49627000      -0.33352000 
Al       5.75095872       1.64633664      -1.04905632      -2.85220000      -0.65738000      -2.36998000 
Al      -0.64645152       0.53192256      -5.66643168       2.80016000      -2.51780000       0.70811000 
Al       7.70006016       9.47878464      -5.73760512       0.30443000       0.32550000       1.40096000 
Al       2.90583072       6.23782848       3.40627872      -0.21448000       4.39159000       1.58474000 
Al       3.29076384       2.40088992      -0.55815552       1.95774000      -0.75252000      -4.83600000 
Al      -0.90452544      -0.17817696       1.00188192       0.03534000      -4.58310000      -4.50029000 
Al       9.43807488      -2.80851168       8.75676672       0.04747000      -5.38331000      -2.66066000 
Al       3.58949760      -3.79963584      10.40604864       1.39838000       0.05647000      -0.87754000 
Al       4.04944800       6.03449184       8.84719680       1.51935000       1.37920000       0.38679000 
Al       6.00431520       7.54867776      12.58996128      -0.98372000       0.34360000      -2.22997000 
Al       9.97652448       2.40458400      15.54482592       0.00865000       1.04852000      -1.31191000 
Al       0.59119008       4.24588320     -10.23207744      -1.57403000      -0.63344000       1.13727000 
Al       0.27704352       5.95617984      -8.00061600       1.54389000      -0.06718000      -2.02481000 
Al       5.13530784       4.17226368      -5.19443808      -0.78209000       0.06387000      -1.50671000 
Al       0.11097216       0.78112320      -2.54945184      -1.63931000      -0.26881000      -3.01659000 
Al       6.41744064       1.19265120       3.66521376       0.42134000       0.17593000       0.68229000 
Al       4.45608384      -1.77233472       6.97212672      -0.95724000      -0.95657000       1.39410000 
Al       1.92922080      12.16636512       6.03290688       1.90429000      -3.92694000      -1.01178000 
Al      -8.43405888      12.68683104       0.53419392      -0.61836000       0.03854000       0.40133000 
Al      -1.45681536       7.93920192      12.64871712      -1.39698000       1.20433000       0.77482000 
Al       6.74336832       1.72544736       6.82880640       0.11702000       0.29667000      -0.42833000 
Al       2.63149536       6.62383488      11.32331616      -0.55609000      -0.04907000       0.43246000 
Al      -4.82710176       9.72825984      16.89276576       4.55619000       0.82065000      -2.43472000 
Al      -0.52383552       5.91814080      -3.54968640      -0.17325000      -0.61614000      -1.00164000 
Al       1.76945184      11.65117824     -11.38157280      -0.26903000       1.74742000       1.97627000 
Al      -1.45738944       5.72331552       1.10369376      -1.33523000      -2.03308000      -0.12730000 
Al      -1.28304384      11.17886016       8.76180864       1.95564000       1.98226000      -1.05714000 
Al       2.38092192      15.54951840       9.52496064      -0.73715000     -11.53885000       6.12007000 
Al       3.53931552      11.08866720       3.00079104      -0.66627000      -0.79268000       0.06274000 
Al       6.09130080       7.48446816       2.41327008      -0.00673000      -0.28642000       2.41543000 
Al       5.59341120      -3.33963552       4.59141696      -4.34596000      -1.84348000       0.59253000 
Al       4.60609344       4.46702880       1.39580064       3.68333000       4.02642000      -5.29042000 
Al      -5.56967424       4.06201536       2.31816000       0.69236000       1.54476000      -0.59467000 
Al      -0.53411904       9.53425824      10.51727040      -1.19440000      -0.10153000      -0.54082000 
Al      -1.97322528       1.98241056      12.25610880      -1.86066000       2.30697000       1.46516000 
Al      -3.13964352      -2.64142944      -0.45701760       2.67995000       3.34769000      -0.60551000 
Al       7.72318560       0.53683968      -1.07722368       5.93281000       0.02823000       1.00044000 
Al       9.48136800       1.38876192       5.26261632      -1.61259000       1.85727000       0.02292000 
Al       2.06355552      -7.77276864      -3.73577568      -3.26010000      10.91506000      -5.00184000 
Al       5.44130496      -6.65124096       4.73719584      -1.43682000       2.80614000      -1.37184000 
Al       1.29146784       2.85237888       4.46669184      -1.03441000       1.68530000       0.53423000 
Al       9.50223456      -4.77457344      14.62999200      -2.98478000      -0.58424000      -4.99476000 
Al      14.96077440       3.62904672       6.23915136       1.31460000       1.67857000       2.10508000 
Al       4.97719872       0.39828672      20.95495584      -0.89218000       0.69848000      -0.04588000 
Al       5.36089632      -0.80381184      17.49632352       0.35703000       1.39514000      -0.52597000 
Al       6.45802560     -12.83164896      12.79388448      -2.18625000      -2.37757000       3.37232000 
Al       7.71417504       1.18862016       9.37770912      -2.93435000      -9.83047000      -7.10400000 
Al       0.32796192       8.81437440       2.98635168       1.41555000      -1.30669000       0.06381000 
Al       4.97663712      11.29498656      -1.95257088      -0.47277000       0.76304000      -0.82759000 
Al       8.95689600      -0.44451264       1.30392288       0.60173000      -0.99236000       0.27432000 
Al      -2.86905216       4.96868736       5.53366944      -0.24483000       0.87572000      -3.13318000 
Al      -4.37396544       3.78470976       4.34262816      -0.46761000      -2.67596000       0.17582000 
Al       4.02041952      14.17161408       5.48492256       0.21212000      -0.08002000       4.16995000 
Al       4.75187232       5.26807008      11.40391200       0.49423000       0.10762000      -0.60399000 
Al      -4.77575904       1.66211136       1.52954880       2.22159000       0.49429000      -0.24743000 
Al       8.65134816      -0.33385248       4.23523776      -1.74415000      -2.85431000      -2.22295000 
Al      13.21834176       6.54992832       1.76132736       1.20735000       2.23054000      -0.16442000 
Al      -4.10781696      -4.60037760      11.56119744      -4.79976000      -1.98036000       1.66430000 
Al       6.11225472      11.11527456      15.13540704       0.74511000      -0.00305000       0.09124000 
Al      -0.24842688       6.90437280      -1.26728160       3.01415000      -1.20753000      -2.17086000 
Al      14.62274112      13.53738048       7.61997600       0.97147000       2.95078000       3.89626000 
Al       1.85415360       1.44319968       2.86654368      -2.60947000      -2.69515000      -1.79266000 
Al      -0.32547840      10.57960800       4.48643520       0.60228000      -5.78174000      -1.22153000 
Al      -1.41267360       9.71046336       1.56113568      -0.59174000       3.16675000       1.31847000 
Al      14.19572544      10.87202688       8.48221920      -0.02159000      -0.34297000      -0.09830000 
Al       5.58171744       8.28331296       7.55519232      -6.11811000      -3.00729000      -9.21447000 
Al       7.28047008      11.85769728       8.28146592      -1.96734000      -3.76052000      -3.92058000 
Al       4.60031520       3.02255616      -3.31210464       2.36315000      -1.29543000       1.98858000 
Al       8.92779264      11.40882912       9.81238752      -0.01752000       3.40266000       3.48975000 
Al      -0.89472864      14.77243872      17.78731968       0.87543000       2.41693000      -0.59314000 
Al       2.07643488       6.58213920      19.48336416      -1.44020000      -0.83766000       0.40911000 
Al       9.81787872       1.34383392      -4.99010304      -2.11495000       1.09423000       3.87745000 
Al      13.35959040       4.96964832      -0.41281344       0.47555000      -1.53428000       0.34742000 
Al      17.97279744       2.39813184       1.29888096      -2.05505000      -3.22275000       1.13178000 
Al      12.85542336       2.99788320      -4.61671392      -1.46051000      -0.07672000      -0.09425000 
Al       9.55658496       4.38055488       7.64192832       0.02611000      -1.09919000       3.98403000 
Al      11.39873280       6.06542976       6.30387264       0.94015000       1.95850000       3.07090000 
Al      12.26463264      -3.45557472       7.24468992      -0.24798000      -0.05449000      -0.32389000 
Al      -1.77022560      12.46905504      11.19472224      -1.03818000      -2.67056000      -0.92411000 
Al       7.81198080      -3.01817568      13.84324032      -1.21658000       0.24778000       0.94174000 
Al       8.10813120       2.84683776       9.87782016       3.75683000      15.11948000       4.22101000 
Al       8.13189312       6.14908320       3.72924864      -0.58891000       0.95565000      -0.27621000 
Al      -2.17736064       4.50268416      10.72385184      -0.00362000      -0.02299000       0.25910000 
Al       0.19693440      15.10071264      -1.13709024       1.12124000       1.60496000       0.70930000 
Al       6.49727520       8.65479264      -3.31232928       4.84046000       1.45938000       8.78283000 
Al      22.78362528       7.72745376       4.04374464       2.69267000       0.16883000       6.25443000 
Al       2.83498176      10.71487872      11.52328320       2.85878000       0.79593000      -0.93794000 
Al       6.70275840       3.64799136      -0.43733664      -0.68986000      -2.22649000      -0.70237000 
Al       6.95182176       5.42006400       6.51956448       2.89805000       0.91640000       0.54802000 
Al      15.84935040       8.07361152       5.72715936       1.21396000       1.02083000      -1.10538000 
Al      12.39849312       1.68794496       1.66516896       0.10884000       4.36919000      -0.39661000 
Al       8.77090656       7.24889568       7.94073696      -0.04164000      -0.57962000      -0.24203000 
Al       5.63578080       3.51761280       4.76188128      -0.36235000      -1.75234000      -0.19663000 
Al      14.80496160       2.96456160       1.22111808      -2.19569000      -0.13281000      -0.78798000 
Al       7.67680992       5.48251392      12.33981216       2.61890000       4.23650000       0.67220000 
Al       6.98342112      10.13131392      -1.42476672       0.71847000      -0.45367000       1.02442000 
Al      10.46303232      10.77506976       5.73265056      -4.46919000       0.20267000       3.39925000 
Al       3.84014592      13.68865056       3.36304800       5.28542000      -1.00852000      -2.36112000 
Al       3.20468928      16.68748224       2.78370144      -3.18066000      -3.25580000       7.28220000 
Al      13.12460448      12.34992096       4.27139232       2.23113000       5.41283000      -1.99437000 
Al      15.27840288       8.36870112       1.62780384       0.26941000       0.32802000      -0.18943000 
Al      11.12479680      12.62793792      15.57704928      -2.78472000      -0.53130000       3.36744000 
Al      13.48769760       9.91986528      12.27175872      -3.92294000      -3.40263000       1.70862000 
Al       2.24533920       0.23049312      10.35614112       2.78768000       0.87232000       0.12890000 
Al       6.85790976       5.64379296       9.36137280       0.02977000      -0.14270000       0.04673000 
Al      10.07260800       7.51113792      10.32117216       2.17171000      -0.77624000      -3.49837000 
Al       4.88540832      10.11784800      13.07765472      -0.24337000      -1.27539000       0.17697000 
32
Lattice="8.16 0.0 0.0 0.0 8.16 0.0 0.0 0.0 8.16" Properties=species:S:1:pos:R:3:force:R:3 virial="-3.6987946677866756 -2.7595873761956695 0.4602980498102144 -2.7595873761956695 4.691125924796614 -0.6484345470681824 0.4602980498102144 -0.6484345470681824 0.8952702283310204" energy=-3508.01624973 config_type=Al_T1000 pbc="T T T"
Al       0.14201664      -0.03364368       0.14676576       0.12007000       0.16930000      -0.77898000 
Al       1.87973760       2.14306896      -0.21251904       1.17059000       0.33034000       1.03307000 
Al       2.24271072      -0.17706384       2.46669456      -0.72953000       1.25319000      -0.87075000 
Al       0.20144592       1.81470240       2.12751600      -0.12818000       0.37412000      -0.12160000 
Al      -0.23965104      -0.25359648       3.96408720       0.35278000       0.36486000       0.00253000 
Al       1.98424272       2.02039968       4.14636528      -0.02653000       0.49740000       0.37037000 
Al       1.94252064       0.20681520       6.05971392       0.11624000      -0.57563000       0.10818000 
Al      -0.04643040       2.54870256       6.45338496      -0.30825000      -1.12217000      -1.08759000 
Al       0.08210592       4.38440880       0.14878944       0.02266000      -0.63891000      -1.19514000 
Al       2.00385936       6.16722192      -0.20406528       0.36106000       0.25599000       0.03172000 
Al       1.77879024       4.20378720       2.20948320       0.79376000      -1.25719000      -0.60749000 
Al       0.01733184       6.10150944       1.94116608      -0.15754000       0.66773000       0.60612000 
Al      -0.32572272       4.12540224       4.05102384       1.36713000      -0.50557000      -0.06103000 
Al       2.17212672       6.02520528       3.89121024      -0.09423000      -0.01129000       1.21306000 
Al       1.83185472       4.44548640       5.87281728       0.43359000      -0.48956000       0.39637000 
Al      -0.34190400       6.35333520       5.98339344       0.39354000      -0.18392000       0.61261000 
Al       3.81480000       0.09049440       0.31256880       0.21736000       0.17638000      -0.71458000 
Al       6.08165616       1.87048416       0.16785936       0.01191000       0.43086000      -0.27739000 
Al       6.26911584      -0.10667568       1.76683584      -0.68730000      -0.19360000       1.04504000 
Al       3.99527472       1.97476080       2.37034128       0.23512000       0.30904000      -0.64761000 
Al       4.41497616      -0.11311392       4.09834368      -0.30710000      -0.15813000      -0.13075000 
Al       6.23879328       1.85968032       4.03237824       0.25885000       0.27062000      -0.11299000 
Al       6.04987296       0.26994912       6.21650832       1.59150000      -1.67358000       0.22268000 
Al       4.38683232       1.92706560       6.25703904      -1.91481000       1.33096000      -0.07945000 
Al       4.19230608       4.18555776      -0.15906288      -0.91307000      -0.98089000       0.02401000 
Al       5.88708912       6.00806112       0.13669632       1.09880000       0.59934000      -0.71803000 
Al       6.38724000       3.79932864       1.81064688      -0.85695000       0.09059000       0.62253000 
Al       3.95950128       6.08189280       1.86862368      -0.08262000      -0.57127000       0.24080000 
Al       4.42876656       3.86899056       4.32526512      -1.53052000      -0.41133000      -0.45251000 
Al       5.94286272       5.74119648       3.61612848       0.15976000       1.40233000       0.13541000 
Al       6.25718592       4.21233888       6.08444688      -0.53610000       0.16017000       0.87659000 
Al       4.28869200       6.17423952       5.96956224      -0.43200000       0.08981000       0.31480000 
32
Lattice="8.0 0.0 0.0 0.0 8.0 0.0 0.0 0.0 8.0" Properties=species:S:1:pos:R:3:force:R:3 virial="9.925553396266348 -1.8264912632034316 0.8262551723785575 -1.8264912632034316 11.909174901374257 0.25545727898315834 0.8262551723785575 0.25545727898315834 11.140700324966309" energy=-3509.15886995 config_type=Al_T1000 pbc="T T T"
Al      -0.12604800       0.12481600      -0.24894400       1.30895000      -0.48791000       1.02251000 
Al       2.24667200       1.76060800       0.04449600      -1.26801000       0.78144000      -0.63794000 
Al       1.94178400      -0.01729600       2.16982400       0.03390000       0.03491000      -1.09755000 
Al       0.03419200       2.15689600       1.90790400       0.76896000      -0.54053000       0.81700000 
Al       0.02841600       0.00300800       3.86556800      -0.52365000       0.43724000       0.61640000 
Al       2.00242400       1.96216000       4.08988000       0.26326000       0.46098000      -0.32911000 
Al       2.07525600       0.14730400       6.00284800      -0.05733000      -0.29458000       0.32204000 
Al      -0.13448800       1.79127200       5.73371200      -0.37911000       0.12695000       1.07531000 
Al       0.13530400       3.75097600      -0.06156800      -0.29674000       0.75062000      -0.26721000 
Al       1.91560000       5.82421600       0.10588000      -0.38222000       0.61087000       0.01735000 
Al       1.98492000       4.18038400       2.22699200       0.49668000      -0.79834000      -0.08774000 
Al       0.18912000       5.87449600       2.47868800      -0.69214000      -0.07690000      -1.80202000 
Al      -0.02914400       3.72362400       4.18675200      -0.14017000       1.33863000      -0.65807000 
Al       1.87925600       6.12935200       4.29000000       0.94549000      -0.57038000       0.45892000 
Al       1.96732800       3.94826400       6.06828800       0.18498000      -0.13956000      -0.13755000 
Al      -0.17319200       6.26055200       6.12564800       0.93097000      -1.71704000      -0.76693000 
Al       4.17515200       0.09837600       0.08216000       0.21906000      -0.26091000      -0.31577000 
Al       6.23273600       1.86220800       0.14134400      -1.61681000       1.18616000      -1.15063000 
Al       6.14795200       0.05875200       1.98712000      -0.20641000      -0.11989000      -0.42722000 
Al       3.72952800       2.16639200       1.97613600       0.72482000      -0.30438000       0.80924000 
Al       3.92981600       0.02874400       3.87989600       0.31009000      -0.08259000       0.10399000 
Al       5.92344000       2.01727200       3.61153600      -0.03627000      -0.09852000       1.08948000 
Al       5.85521600      -0.28984800       5.69185600      -0.22925000       1.01886000       0.32794000 
Al       4.30673600       2.01910400       5.81445600      -0.56317000      -0.40202000       0.34391000 
Al       4.08516800       3.86637600      -0.13680000      -0.31259000       0.14725000       0.16036000 
Al       6.26328000       6.01630400       0.28190400      -0.31595000      -0.49356000      -0.30479000 
Al       5.74091200       3.89663200       1.89086400       0.66506000       0.63012000       0.00140000 
Al       3.93948000       6.12595200       1.87115200      -0.01893000      -0.32339000       0.07261000 
Al       4.02014400       4.25761600       4.15426400      -0.61661000      -0.19446000      -0.58816000 
Al       5.96324000       6.05080800       3.55508800      -0.36799000      -0.57063000       1.33311000 
Al       5.88268800       4.08062400       5.90739200       1.08291000       0.49310000       0.40602000 
Al       3.86711200       6.12406400       6.30567200       0.08820000      -0.54155000      -0.40690000 
108
Lattice="12.48 0.0 0.0 0.0 12.48 0.0 0.0 0.0 12.48" Properties=species:S:1:pos:R:3:force:R:3 virial="-36.68030993548108 0.09683783900427262 -1.1467555820847983 0.09683783900427262 -31.082665499307517 2.120569120194915 -1.1467555820847983 2.120569120194915 -34.3991613067594" energy=-11836.1432934 config_type=Al_T1000 pbc="T T T"
Al      -0.11028576      -0.44151744      -0.81785184      -0.10134000       0.88638000       0.74586000 
Al       2.39148000       2.44754016      -0.20895264      -0.43066000      -0.61485000       0.07679000 
Al       2.32592256      -0.53946048       1.66470720      -0.00963000       0.62287000      -0.44431000 
Al       0.14365728       1.35988320       1.25256768       0.10959000       0.33349000       0.20531000 
Al      -0.04365504       0.06644352       4.27974144       0.22378000      -0.31238000      -0.13891000 
Al       1.94759136       1.94243712       4.37671104      -0.37835000       0.46650000      -0.64972000 
Al       1.80796512       0.12730848       6.56057376      -0.85210000       0.58578000       0.03076000 
Al      -0.37791936       2.02688928       6.34070112       0.00994000       0.15184000      -0.23615000 
Al      -0.09089184      -0.15925728       8.89498272       0.05162000       0.04636000      -0.60458000 
Al       2.35867008       2.16463104       8.78089056       0.25017000      -0.80529000       0.25280000 
Al       2.37857568      -0.11831040      10.51331424      -0.30371000       1.00301000       0.28521000 
Al       0.15804672       1.89103200      10.56722784       0.02352000       0.73758000       0.21688000 
Al      -0.22476480       4.12025952       0.29797248       0.12493000      -0.25174000       0.21956000 
Al       2.23498080       6.38139840      -0.00672672      -0.20659000      -0.02403000      -0.54662000 
Al       2.01065280       4.51688640       2.03868288      -0.03951000      -0.27630000       0.36808000 
Al      -0.36065952       6.46701120       1.94380992       0.87274000      -0.34821000       0.34083000 
Al      -0.36309312       4.29456768       4.00203648       0.21415000      -0.39235000      -0.25438000 
Al       1.68177984       5.96706240       4.62287904       0.81332000       0.28848000      -0.49824000 
Al       2.11386240       3.40914912       6.52614144      -0.12104000       0.83371000      -0.28215000 
Al      -0.09095424       5.64178368       6.40796832      -0.27492000       0.41433000       0.69244000 
Al       0.11696256       3.72810048       8.36216160      -0.30574000       0.26243000       0.35529000 
Al       2.32860576       6.07894560       8.00534592      -0.66656000       0.48305000       0.13297000 
Al       2.02708896       4.34616000      10.38385920       1.52656000      -0.65354000       0.02611000 
Al       0.07346976       5.69097984      10.51355136      -0.70676000       2.10012000       0.00267000 
Al       0.13167648       8.51138496       0.07421856      -0.73236000      -0.51386000      -0.00635000 
Al       2.23488096       9.94966752      -0.33671040       0.00198000       0.81793000       0.82935000 
Al       1.97972736       8.07973920       2.06427936      -0.22871000      -0.09345000       0.19067000 
Al      -0.13685568      11.10693792       1.58295072      -0.33756000      -0.78166000       0.69874000 
Al      -0.25509120       8.12247072       4.34583552       0.58839000       0.64279000       0.13006000 
Al       1.78350432      10.22678592       3.78819168      -0.36205000       0.12565000       0.33360000 
Al       2.15170176       8.74572192       6.12537120      -0.18591000      -0.29885000       0.49259000 
Al       0.03389568      10.47492576       6.75853152       0.30206000      -0.15979000      -0.82188000 
Al       0.08593728       8.06648544       8.44391808       0.05130000      -0.50667000      -0.62515000 
Al       2.33317344      10.71112224       8.38315296      -0.70010000      -0.69347000      -0.54566000 
Al       2.13019872       8.39116512      10.05105504       0.51804000      -0.69398000      -0.18428000 
Al      -0.01878240      10.04503968      10.35007584      -0.04844000      -1.26168000      -0.79484000 
Al       4.55431392       0.01817088      -0.12239136      -0.39278000      -0.14490000      -0.70310000 
Al       6.22320192       2.52265728      -0.11786112       0.26319000      -0.72419000       1.05391000 
Al       6.21868416       0.34037952       1.80336000       0.06514000      -0.43572000       1.21922000 
Al       3.96195072       1.82432640       1.93758240      -0.14622000       0.55763000       0.23371000 
Al       3.63564864      -0.03741504       3.91428960       0.55743000      -0.09806000      -0.31751000 
Al       5.85831168       1.96963104       4.24354944       0.10632000      -0.02102000      -0.25501000 
Al       6.34127520       0.03590496       6.41299776       0.15639000      -0.97401000      -0.83351000 
Al       4.05646176       1.54600992       6.23802816       0.30466000       0.38617000       0.15103000 
Al       4.52089248      -0.19845696       8.41452768      -0.24920000       1.13696000       0.17433000 
Al       6.52685280       1.98942432       7.88269248      -0.08494000       0.54594000       1.41343000 
Al       6.87800256       0.08848320      10.19828160      -1.78921000       0.11951000       0.70294000 
Al       4.76311680       2.16711456      10.26013248      -0.46309000      -0.34356000      -0.56395000 
Al       4.27841856       4.26362976      -0.04709952      -0.17179000       0.65993000       0.19520000 
Al       6.34459488       6.50506272       0.00923520       0.04089000      -0.28096000       0.27260000 
Al       5.98583232       4.09279104       2.41969728      -0.85139000      -0.11143000      -1.07238000 
Al       4.26045984       6.39097056       1.92366720      -0.16727000      -0.12500000      -0.37476000 
Al       3.94068480       4.24768032       4.44713568      -0.09741000      -0.23048000      -0.12839000 
Al       5.84525760       6.32511360       4.00221120       0.81704000      -0.05758000       0.14382000 
Al       6.77026272       3.87113376       6.14220672      -1.06850000       0.20262000       0.31753000 
Al       4.39169952       6.39450240       6.30299904       0.10753000      -0.27879000       0.29426000 
Al       4.21629312       4.23145632       8.33395680       0.54881000      -0.22370000       0.02437000 
Al       6.34692864       6.33946560       8.52437664      -0.37237000      -0.29797000      -0.24636000 
Al       6.38401920       4.43772576      10.57746144      -1.20440000       0.37202000      -0.50286000 
Al       4.19757312       6.41861376      10.36542624      -0.09161000      -0.13398000      -0.06394000 
Al       4.45547232       8.41308000      -0.10461984      -0.70797000      -0.16796000       0.49449000 
Al       6.45787584      10.25454144       0.00728832      -0.09737000       0.88358000       0.19457000 
Al       7.15302432       8.56328928       2.24384160      -2.49863000       0.23054000       0.53128000 